16193843
  -OEChem-11060808482D

 44 47  0     0  0  0  0  0  0999 V2000
    4.2677   -0.4444    0.0000 S   0  0  0  0  0  0  0  0  0  0  0  0
    4.5783    2.1155    0.0000 S   0  0  0  0  0  0  0  0  0  0  0  0
    9.8547    2.3108    0.0000 O   0  0  0  0  0  0  0  0  0  0  0  0
    8.1226    2.3108    0.0000 O   0  0  0  0  0  0  0  0  0  0  0  0
    9.8547   -0.6892    0.0000 O   0  0  0  0  0  0  0  0  0  0  0  0
    5.5246    0.8108    0.0000 N   0  0  0  0  0  0  0  0  0  0  0  0
    6.3906    2.3108    0.0000 N   0  0  0  0  0  0  0  0  0  0  0  0
    3.9947    1.3108    0.0000 N   0  0  0  0  0  0  0  0  0  0  0  0
    6.3906   -0.6892    0.0000 N   0  0  0  0  0  0  0  0  0  0  0  0
    2.9785   -1.6012    0.0000 C   0  0  0  0  0  0  0  0  0  0  0  0
    3.2892   -0.6507    0.0000 C   0  0  0  0  0  0  0  0  0  0  0  0
    2.0000   -1.8074    0.0000 C   0  0  0  0  0  0  0  0  0  0  0  0
    3.6463   -2.3455    0.0000 C   0  0  0  0  0  0  0  0  0  0  0  0
    4.5783    0.5061    0.0000 C   0  0  0  0  0  0  0  0  0  0  0  0
    6.3906    0.3108    0.0000 C   0  0  0  0  0  0  0  0  0  0  0  0
    7.2566    0.8108    0.0000 C   0  0  0  0  0  0  0  0  0  0  0  0
    5.5246    1.8108    0.0000 C   0  0  0  0  0  0  0  0  0  0  0  0
    8.9887    0.8108    0.0000 C   0  0  0  0  0  0  0  0  0  0  0  0
    8.1226    0.3108    0.0000 C   0  0  0  0  0  0  0  0  0  0  0  0
   10.7207    0.8108    0.0000 C   0  0  0  0  0  0  0  0  0  0  0  0
    7.2566    1.8108    0.0000 C   0  0  0  0  0  0  0  0  0  0  0  0
    9.8547    0.3108    0.0000 C   0  0  0  0  0  0  0  0  0  0  0  0
   10.7207    1.8108    0.0000 C   0  0  0  0  0  0  0  0  0  0  0  0
    8.9887    1.8108    0.0000 C   0  0  0  0  0  0  0  0  0  0  0  0
   11.6147    0.2762    0.0000 C   0  0  0  0  0  0  0  0  0  0  0  0
   11.6147    2.3455    0.0000 C   0  0  0  0  0  0  0  0  0  0  0  0
   12.5207    0.7900    0.0000 C   0  0  0  0  0  0  0  0  0  0  0  0
   12.5207    1.8316    0.0000 C   0  0  0  0  0  0  0  0  0  0  0  0
    3.5852   -1.4733    0.0000 H   0  0  0  0  0  0  0  0  0  0  0  0
    3.2686   -0.0310    0.0000 H   0  0  0  0  0  0  0  0  0  0  0  0
    2.6754   -0.5633    0.0000 H   0  0  0  0  0  0  0  0  0  0  0  0
    1.3933   -1.9353    0.0000 H   0  0  0  0  0  0  0  0  0  0  0  0
    2.1279   -2.4141    0.0000 H   0  0  0  0  0  0  0  0  0  0  0  0
    1.8721   -1.2007    0.0000 H   0  0  0  0  0  0  0  0  0  0  0  0
    3.1849   -2.7595    0.0000 H   0  0  0  0  0  0  0  0  0  0  0  0
    4.0604   -2.8069    0.0000 H   0  0  0  0  0  0  0  0  0  0  0  0
    4.1078   -1.9314    0.0000 H   0  0  0  0  0  0  0  0  0  0  0  0
    8.1226   -0.3092    0.0000 H   0  0  0  0  0  0  0  0  0  0  0  0
    8.4517    2.1208    0.0000 H   0  0  0  0  0  0  0  0  0  0  0  0
   11.6075   -0.3438    0.0000 H   0  0  0  0  0  0  0  0  0  0  0  0
   11.6075    2.9654    0.0000 H   0  0  0  0  0  0  0  0  0  0  0  0
    5.8536   -0.9992    0.0000 H   0  0  0  0  0  0  0  0  0  0  0  0
   13.0565    0.4779    0.0000 H   0  0  0  0  0  0  0  0  0  0  0  0
   13.0565    2.1437    0.0000 H   0  0  0  0  0  0  0  0  0  0  0  0
  1 11  1  0  0  0  0
  1 14  1  0  0  0  0
  2  8  1  0  0  0  0
  2 17  1  0  0  0  0
  3 23  1  0  0  0  0
  3 24  1  0  0  0  0
  4 21  2  0  0  0  0
  5 22  2  0  0  0  0
  6 14  1  0  0  0  0
  6 15  1  0  0  0  0
  6 17  1  0  0  0  0
  7 17  2  0  0  0  0
  7 21  1  0  0  0  0
  8 14  2  0  0  0  0
  9 15  2  0  0  0  0
  9 42  1  0  0  0  0
 10 11  1  0  0  0  0
 10 12  1  0  0  0  0
 10 13  1  0  0  0  0
 10 29  1  0  0  0  0
 11 30  1  0  0  0  0
 11 31  1  0  0  0  0
 12 32  1  0  0  0  0
 12 33  1  0  0  0  0
 12 34  1  0  0  0  0
 13 35  1  0  0  0  0
 13 36  1  0  0  0  0
 13 37  1  0  0  0  0
 15 16  1  0  0  0  0
 16 19  2  0  0  0  0
 16 21  1  0  0  0  0
 18 19  1  0  0  0  0
 18 22  1  0  0  0  0
 18 24  2  0  0  0  0
 19 38  1  0  0  0  0
 20 22  1  0  0  0  0
 20 23  1  0  0  0  0
 20 25  2  0  0  0  0
 23 26  2  0  0  0  0
 24 39  1  0  0  0  0
 25 27  1  0  0  0  0
 25 40  1  0  0  0  0
 26 28  1  0  0  0  0
 26 41  1  0  0  0  0
 27 28  2  0  0  0  0
 27 43  1  0  0  0  0
 28 44  1  0  0  0  0
M  END
> <PUBCHEM_COMPOUND_CID>
16193843

> <PUBCHEM_COMPOUND_CANONICALIZED>
1

> <PUBCHEM_CACTVS_COMPLEXITY>
859

> <PUBCHEM_CACTVS_HBOND_ACCEPTOR>
6

> <PUBCHEM_CACTVS_HBOND_DONOR>
1

> <PUBCHEM_CACTVS_ROTATABLE_BOND>
4

> <PUBCHEM_CACTVS_SUBSKEYS>
AAADceB7sABgAAAAAAAAAAAAAAAAAQAAAAAwQIAAAAAAAECBAAAAHgQQQAAADQSl2AKzBoNABAioAqNyNACCGAHkIBAJiAEmCNgMJj6kfRqEMWAk4BEIqYeIyKCOAAAAAAAIAAAAAAAAABAAAAAAAAAAAA==

> <PUBCHEM_IUPAC_OPENEYE_NAME>
(6Z)-5-imino-3-isobutylsulfanyl-6-[(4-oxochromen-3-yl)methylene]-[1,2,4]thiadiazolo[4,5-a]pyrimidin-7-one

> <PUBCHEM_IUPAC_CAS_NAME>
(6Z)-5-imino-3-(isobutylthio)-6-[(4-oxo-3-chromenyl)methylene]-[1,2,4]thiadiazolo[4,5-a]pyrimidin-7-one

> <PUBCHEM_IUPAC_NAME>
(6Z)-5-imino-3-(2-methylpropylsulfanyl)-6-[(4-oxochromen-3-yl)methylidene]-[1,2,4]thiadiazolo[4,5-a]pyrimidin-7-one

> <PUBCHEM_IUPAC_SYSTEMATIC_NAME>
(6Z)-5-imino-3-(2-methylpropylsulfanyl)-6-[(4-oxochromen-3-yl)methylidene]-[1,2,4]thiadiazolo[4,5-a]pyrimidin-7-one

> <PUBCHEM_IUPAC_TRADITIONAL_NAME>
(6Z)-5-imino-3-(isobutylthio)-6-[(4-ketochromen-3-yl)methylene]-[1,2,4]thiadiazolo[4,5-a]pyrimidin-7-one

> <PUBCHEM_NIST_INCHI>
InChI=1/C19H16N4O3S2/c1-10(2)9-27-19-22-28-18-21-17(25)13(16(20)23(18)19)7-11-8-26-14-6-4-3-5-12(14)15(11)24/h3-8,10,20H,9H2,1-2H3/b13-7-,20-16-

> <PUBCHEM_CACTVS_XLOGP>
3.9

> <PUBCHEM_EXACT_MASS>
412.066382

> <PUBCHEM_MOLECULAR_FORMULA>
C19H16N4O3S2

> <PUBCHEM_MOLECULAR_WEIGHT>
412.48534

> <PUBCHEM_OPENEYE_CAN_SMILES>
CC(C)CSC1=NSC2=NC(=O)C(=CC3=COC4=CC=CC=C4C3=O)C(=N)N21

> <PUBCHEM_OPENEYE_ISO_SMILES>
CC(C)CSC1=NSC2=NC(=O)/C(=C\C3=COC4=CC=CC=C4C3=O)/C(=N)N21

> <PUBCHEM_CACTVS_TPSA>
95.2

> <PUBCHEM_MONOISOTOPIC_WEIGHT>
412.066382

> <PUBCHEM_TOTAL_CHARGE>
0

> <PUBCHEM_HEAVY_ATOM_COUNT>
28

> <PUBCHEM_ATOM_DEF_STEREO_COUNT>
0

> <PUBCHEM_ATOM_UDEF_STEREO_COUNT>
0

> <PUBCHEM_BOND_DEF_STEREO_COUNT>
1

> <PUBCHEM_BOND_UDEF_STEREO_COUNT>
0

> <PUBCHEM_ISOTOPIC_ATOM_COUNT>
0

> <PUBCHEM_COMPONENT_COUNT>
1

> <PUBCHEM_CACTVS_TAUTO_COUNT>
1

> <PUBCHEM_BONDANNOTATIONS>
18  22  8
18  24  8
20  22  8
20  23  8
20  25  8
23  26  8
25  27  8
26  28  8
27  28  8
3  23  8
3  24  8

$$$$
16193145
  -OEChem-11060808482D

 52 54  0     0  0  0  0  0  0999 V2000
    4.9278    8.0166    0.0000 I   0  5  0  0  0  0  0  0  0  0  0  0
    3.5918    3.5257    0.0000 S   0  0  0  0  0  0  0  0  0  0  0  0
    6.2929    2.0369    0.0000 N   0  3  0  0  0  0  0  0  0  0  0  0
    2.7871    2.1318    0.0000 N   0  0  0  0  0  0  0  0  0  0  0  0
    5.4269    2.5369    0.0000 C   0  0  0  0  0  0  0  0  0  0  0  0
    7.1590    2.5369    0.0000 C   0  0  0  0  0  0  0  0  0  0  0  0
    3.6949    2.5369    0.0000 C   0  0  0  0  0  0  0  0  0  0  0  0
    2.1200    2.8688    0.0000 C   0  0  0  0  0  0  0  0  0  0  0  0
    7.1590    3.5369    0.0000 C   0  0  0  0  0  0  0  0  0  0  0  0
    4.5609    2.0369    0.0000 C   0  0  0  0  0  0  0  0  0  0  0  0
    2.6200    3.7349    0.0000 C   0  0  0  0  0  0  0  0  0  0  0  0
    6.2929    1.0369    0.0000 C   0  0  0  0  0  0  0  0  0  0  0  0
    2.5809    1.1533    0.0000 C   0  0  0  0  0  0  0  0  0  0  0  0
    5.4269    3.5369    0.0000 C   0  0  0  0  0  0  0  0  0  0  0  0
    6.2929    4.0369    0.0000 C   0  0  0  0  0  0  0  0  0  0  0  0
    8.0529    2.0023    0.0000 C   0  0  0  0  0  0  0  0  0  0  0  0
    1.1200    2.8688    0.0000 C   0  0  0  0  0  0  0  0  0  0  0  0
    8.0529    4.0716    0.0000 C   0  0  0  0  0  0  0  0  0  0  0  0
    2.1200    4.6009    0.0000 C   0  0  0  0  0  0  0  0  0  0  0  0
    8.9590    3.5578    0.0000 C   0  0  0  0  0  0  0  0  0  0  0  0
    1.1200    4.6009    0.0000 C   0  0  0  0  0  0  0  0  0  0  0  0
    8.9590    2.5161    0.0000 C   0  0  0  0  0  0  0  0  0  0  0  0
    0.6200    3.7349    0.0000 C   0  0  0  0  0  0  0  0  0  0  0  0
    7.1590    0.5369    0.0000 C   0  0  0  0  0  0  0  0  0  0  0  0
    1.6303    0.8427    0.0000 C   0  0  0  0  0  0  0  0  0  0  0  0
    9.8231    4.0611    0.0000 C   0  0  0  0  0  0  0  0  0  0  0  0
    0.6200    5.4669    0.0000 C   0  0  0  0  0  0  0  0  0  0  0  0
    4.5609    1.4169    0.0000 H   0  0  0  0  0  0  0  0  0  0  0  0
    6.0809    0.4543    0.0000 H   0  0  0  0  0  0  0  0  0  0  0  0
    5.6824    1.1446    0.0000 H   0  0  0  0  0  0  0  0  0  0  0  0
    3.2005    1.1328    0.0000 H   0  0  0  0  0  0  0  0  0  0  0  0
    2.6682    0.5395    0.0000 H   0  0  0  0  0  0  0  0  0  0  0  0
    4.8900    3.8469    0.0000 H   0  0  0  0  0  0  0  0  0  0  0  0
    6.2929    4.6569    0.0000 H   0  0  0  0  0  0  0  0  0  0  0  0
    8.0457    1.3823    0.0000 H   0  0  0  0  0  0  0  0  0  0  0  0
    0.8100    2.3319    0.0000 H   0  0  0  0  0  0  0  0  0  0  0  0
    8.0457    4.6916    0.0000 H   0  0  0  0  0  0  0  0  0  0  0  0
    2.4300    5.1378    0.0000 H   0  0  0  0  0  0  0  0  0  0  0  0
    9.4947    2.2041    0.0000 H   0  0  0  0  0  0  0  0  0  0  0  0
    0.0000    3.7349    0.0000 H   0  0  0  0  0  0  0  0  0  0  0  0
    6.8490    0.0000    0.0000 H   0  0  0  0  0  0  0  0  0  0  0  0
    7.6959    0.2269    0.0000 H   0  0  0  0  0  0  0  0  0  0  0  0
    7.4690    1.0739    0.0000 H   0  0  0  0  0  0  0  0  0  0  0  0
    1.4377    1.4320    0.0000 H   0  0  0  0  0  0  0  0  0  0  0  0
    1.0410    0.6500    0.0000 H   0  0  0  0  0  0  0  0  0  0  0  0
    1.8230    0.2533    0.0000 H   0  0  0  0  0  0  0  0  0  0  0  0
    1.1569    5.7769    0.0000 H   0  0  0  0  0  0  0  0  0  0  0  0
    0.3100    6.0038    0.0000 H   0  0  0  0  0  0  0  0  0  0  0  0
    0.0831    5.1569    0.0000 H   0  0  0  0  0  0  0  0  0  0  0  0
   10.3588    4.3732    0.0000 H   0  0  0  0  0  0  0  0  0  0  0  0
    9.5110    4.5968    0.0000 H   0  0  0  0  0  0  0  0  0  0  0  0
   10.1351    3.5253    0.0000 H   0  0  0  0  0  0  0  0  0  0  0  0
  2  7  1  0  0  0  0
  2 11  1  0  0  0  0
  3  5  2  0  0  0  0
  3  6  1  0  0  0  0
  3 12  1  0  0  0  0
  4  7  1  0  0  0  0
  4  8  1  0  0  0  0
  4 13  1  0  0  0  0
  5 10  1  0  0  0  0
  5 14  1  0  0  0  0
  6  9  2  0  0  0  0
  6 16  1  0  0  0  0
  7 10  2  0  0  0  0
  8 11  2  0  0  0  0
  8 17  1  0  0  0  0
  9 15  1  0  0  0  0
  9 18  1  0  0  0  0
 10 28  1  0  0  0  0
 11 19  1  0  0  0  0
 12 24  1  0  0  0  0
 12 29  1  0  0  0  0
 12 30  1  0  0  0  0
 13 25  1  0  0  0  0
 13 31  1  0  0  0  0
 13 32  1  0  0  0  0
 14 15  2  0  0  0  0
 14 33  1  0  0  0  0
 15 34  1  0  0  0  0
 16 22  2  0  0  0  0
 16 35  1  0  0  0  0
 17 23  2  0  0  0  0
 17 36  1  0  0  0  0
 18 20  2  0  0  0  0
 18 37  1  0  0  0  0
 19 21  2  0  0  0  0
 19 38  1  0  0  0  0
 20 22  1  0  0  0  0
 20 26  1  0  0  0  0
 21 23  1  0  0  0  0
 21 27  1  0  0  0  0
 22 39  1  0  0  0  0
 23 40  1  0  0  0  0
 24 41  1  0  0  0  0
 24 42  1  0  0  0  0
 24 43  1  0  0  0  0
 25 44  1  0  0  0  0
 25 45  1  0  0  0  0
 25 46  1  0  0  0  0
 26 50  1  0  0  0  0
 26 51  1  0  0  0  0
 26 52  1  0  0  0  0
 27 47  1  0  0  0  0
 27 48  1  0  0  0  0
 27 49  1  0  0  0  0
M  CHG  2   1  -1   3   1
M  END
> <PUBCHEM_COMPOUND_CID>
16193145

> <PUBCHEM_COMPOUND_CANONICALIZED>
1

> <PUBCHEM_CACTVS_COMPLEXITY>
518

> <PUBCHEM_CACTVS_HBOND_ACCEPTOR>
2

> <PUBCHEM_CACTVS_HBOND_DONOR>
0

> <PUBCHEM_CACTVS_ROTATABLE_BOND>
3

> <PUBCHEM_CACTVS_SUBSKEYS>
AAADceB7AABAAgAAAAAAAAAAAAAAAWAAAAA8YIAAAAAAAFix9AAAHAQAAAAADAjBXgQywfMMEAigAyRiRACCgCBhCjAI2Dw4ZJgIIOLgkZGEIAhggADIyAcQgMAOCAACgAACAQAQAAUAAAQCAAAAAAAAAA==

> <PUBCHEM_IUPAC_OPENEYE_NAME>
1-ethyl-2-[(Z)-(3-ethyl-6-methyl-1,3-benzothiazol-2-ylidene)methyl]-6-methyl-quinolin-1-ium iodide

> <PUBCHEM_IUPAC_CAS_NAME>
1-ethyl-2-[(Z)-(3-ethyl-6-methyl-1,3-benzothiazol-2-ylidene)methyl]-6-methylquinolin-1-ium iodide

> <PUBCHEM_IUPAC_NAME>
1-ethyl-2-[(Z)-(3-ethyl-6-methyl-1,3-benzothiazol-2-ylidene)methyl]-6-methylquinolin-1-ium iodide

> <PUBCHEM_IUPAC_SYSTEMATIC_NAME>
1-ethyl-2-[(Z)-(3-ethyl-6-methyl-1,3-benzothiazol-2-ylidene)methyl]-6-methyl-quinolin-1-ium iodide

> <PUBCHEM_IUPAC_TRADITIONAL_NAME>
1-ethyl-2-[(Z)-(3-ethyl-6-methyl-1,3-benzothiazol-2-ylidene)methyl]-6-methyl-quinolin-1-ium iodide

> <PUBCHEM_NIST_INCHI>
InChI=1/C23H25N2S.HI/c1-5-24-19(10-9-18-13-16(3)7-11-20(18)24)15-23-25(6-2)21-12-8-17(4)14-22(21)26-23;/h7-15H,5-6H2,1-4H3;1H/q+1;/p-1/fC23H25N2S.I/h;1h/qm;-1

> <PUBCHEM_EXACT_MASS>
488.078313

> <PUBCHEM_MOLECULAR_FORMULA>
C23H25IN2S

> <PUBCHEM_MOLECULAR_WEIGHT>
488.42747

> <PUBCHEM_OPENEYE_CAN_SMILES>
CCN1C2=C(C=C(C=C2)C)SC1=CC3=[N+](C4=C(C=C3)C=C(C=C4)C)CC.[I-]

> <PUBCHEM_OPENEYE_ISO_SMILES>
CCN\1C2=C(C=C(C=C2)C)S/C1=C\C3=[N+](C4=C(C=C3)C=C(C=C4)C)CC.[I-]

> <PUBCHEM_CACTVS_TPSA>
7.1

> <PUBCHEM_MONOISOTOPIC_WEIGHT>
488.078313

> <PUBCHEM_TOTAL_CHARGE>
0

> <PUBCHEM_HEAVY_ATOM_COUNT>
27

> <PUBCHEM_ATOM_DEF_STEREO_COUNT>
0

> <PUBCHEM_ATOM_UDEF_STEREO_COUNT>
0

> <PUBCHEM_BOND_DEF_STEREO_COUNT>
1

> <PUBCHEM_BOND_UDEF_STEREO_COUNT>
0

> <PUBCHEM_ISOTOPIC_ATOM_COUNT>
0

> <PUBCHEM_COMPONENT_COUNT>
2

> <PUBCHEM_CACTVS_TAUTO_COUNT>
1

> <PUBCHEM_BONDANNOTATIONS>
11  19  8
14  15  8
16  22  8
17  23  8
18  20  8
19  21  8
20  22  8
21  23  8
3  5  8
3  6  8
5  14  8
6  16  8
6  9  8
8  11  8
8  17  8
9  15  8
9  18  8

$$$$
16192857
  -OEChem-11060808482D

 46 48  0     0  0  0  0  0  0999 V2000
    4.4957    7.1515    0.0000 I   0  5  0  0  0  0  0  0  0  0  0  0
    3.5918    3.5257    0.0000 S   0  0  0  0  0  0  0  0  0  0  0  0
    6.2929    2.0369    0.0000 N   0  3  0  0  0  0  0  0  0  0  0  0
    2.7871    2.1318    0.0000 N   0  0  0  0  0  0  0  0  0  0  0  0
    7.1590    2.5369    0.0000 C   0  0  0  0  0  0  0  0  0  0  0  0
    5.4269    2.5369    0.0000 C   0  0  0  0  0  0  0  0  0  0  0  0
    7.1590    3.5369    0.0000 C   0  0  0  0  0  0  0  0  0  0  0  0
    6.2929    1.0369    0.0000 C   0  0  0  0  0  0  0  0  0  0  0  0
    8.0529    2.0023    0.0000 C   0  0  0  0  0  0  0  0  0  0  0  0
    4.5609    2.0369    0.0000 C   0  0  0  0  0  0  0  0  0  0  0  0
    3.6949    2.5369    0.0000 C   0  0  0  0  0  0  0  0  0  0  0  0
    5.4269    3.5369    0.0000 C   0  0  0  0  0  0  0  0  0  0  0  0
    6.2929    4.0369    0.0000 C   0  0  0  0  0  0  0  0  0  0  0  0
    2.1200    2.8688    0.0000 C   0  0  0  0  0  0  0  0  0  0  0  0
    8.0529    4.0716    0.0000 C   0  0  0  0  0  0  0  0  0  0  0  0
    2.6200    3.7349    0.0000 C   0  0  0  0  0  0  0  0  0  0  0  0
    8.9590    2.5161    0.0000 C   0  0  0  0  0  0  0  0  0  0  0  0
    5.4269    0.5369    0.0000 C   0  0  0  0  0  0  0  0  0  0  0  0
    8.0414    1.0023    0.0000 C   0  0  0  0  0  0  0  0  0  0  0  0
    8.9590    3.5578    0.0000 C   0  0  0  0  0  0  0  0  0  0  0  0
    2.5809    1.1533    0.0000 C   0  0  0  0  0  0  0  0  0  0  0  0
    1.1200    2.8688    0.0000 C   0  0  0  0  0  0  0  0  0  0  0  0
    2.1200    4.6009    0.0000 C   0  0  0  0  0  0  0  0  0  0  0  0
    0.6200    3.7349    0.0000 C   0  0  0  0  0  0  0  0  0  0  0  0
    1.1200    4.6009    0.0000 C   0  0  0  0  0  0  0  0  0  0  0  0
    6.9035    1.1446    0.0000 H   0  0  0  0  0  0  0  0  0  0  0  0
    6.5050    0.4543    0.0000 H   0  0  0  0  0  0  0  0  0  0  0  0
    4.5609    1.4169    0.0000 H   0  0  0  0  0  0  0  0  0  0  0  0
    4.8900    3.8469    0.0000 H   0  0  0  0  0  0  0  0  0  0  0  0
    6.2929    4.6569    0.0000 H   0  0  0  0  0  0  0  0  0  0  0  0
    8.0457    4.6916    0.0000 H   0  0  0  0  0  0  0  0  0  0  0  0
    9.4947    2.2041    0.0000 H   0  0  0  0  0  0  0  0  0  0  0  0
    5.7369    0.0000    0.0000 H   0  0  0  0  0  0  0  0  0  0  0  0
    4.8900    0.2269    0.0000 H   0  0  0  0  0  0  0  0  0  0  0  0
    5.1169    1.0739    0.0000 H   0  0  0  0  0  0  0  0  0  0  0  0
    8.6613    0.9952    0.0000 H   0  0  0  0  0  0  0  0  0  0  0  0
    8.0342    0.3824    0.0000 H   0  0  0  0  0  0  0  0  0  0  0  0
    7.4214    1.0095    0.0000 H   0  0  0  0  0  0  0  0  0  0  0  0
    9.4947    3.8698    0.0000 H   0  0  0  0  0  0  0  0  0  0  0  0
    3.1875    1.0255    0.0000 H   0  0  0  0  0  0  0  0  0  0  0  0
    2.4530    0.5466    0.0000 H   0  0  0  0  0  0  0  0  0  0  0  0
    1.9742    1.2812    0.0000 H   0  0  0  0  0  0  0  0  0  0  0  0
    0.8100    2.3319    0.0000 H   0  0  0  0  0  0  0  0  0  0  0  0
    2.4300    5.1378    0.0000 H   0  0  0  0  0  0  0  0  0  0  0  0
    0.0000    3.7349    0.0000 H   0  0  0  0  0  0  0  0  0  0  0  0
    0.8100    5.1378    0.0000 H   0  0  0  0  0  0  0  0  0  0  0  0
  2 11  1  0  0  0  0
  2 16  1  0  0  0  0
  3  5  1  0  0  0  0
  3  6  2  0  0  0  0
  3  8  1  0  0  0  0
  4 11  1  0  0  0  0
  4 14  1  0  0  0  0
  4 21  1  0  0  0  0
  5  7  1  0  0  0  0
  5  9  2  0  0  0  0
  6 10  1  0  0  0  0
  6 12  1  0  0  0  0
  7 13  1  0  0  0  0
  7 15  2  0  0  0  0
  8 18  1  0  0  0  0
  8 26  1  0  0  0  0
  8 27  1  0  0  0  0
  9 17  1  0  0  0  0
  9 19  1  0  0  0  0
 10 11  2  0  0  0  0
 10 28  1  0  0  0  0
 12 13  2  0  0  0  0
 12 29  1  0  0  0  0
 13 30  1  0  0  0  0
 14 16  1  0  0  0  0
 14 22  2  0  0  0  0
 15 20  1  0  0  0  0
 15 31  1  0  0  0  0
 16 23  2  0  0  0  0
 17 20  2  0  0  0  0
 17 32  1  0  0  0  0
 18 33  1  0  0  0  0
 18 34  1  0  0  0  0
 18 35  1  0  0  0  0
 19 36  1  0  0  0  0
 19 37  1  0  0  0  0
 19 38  1  0  0  0  0
 20 39  1  0  0  0  0
 21 40  1  0  0  0  0
 21 41  1  0  0  0  0
 21 42  1  0  0  0  0
 22 24  1  0  0  0  0
 22 43  1  0  0  0  0
 23 25  1  0  0  0  0
 23 44  1  0  0  0  0
 24 25  2  0  0  0  0
 24 45  1  0  0  0  0
 25 46  1  0  0  0  0
M  CHG  2   1  -1   3   1
M  END
> <PUBCHEM_COMPOUND_CID>
16192857

> <PUBCHEM_COMPOUND_CANONICALIZED>
1

> <PUBCHEM_CACTVS_COMPLEXITY>
477

> <PUBCHEM_CACTVS_HBOND_ACCEPTOR>
2

> <PUBCHEM_CACTVS_HBOND_DONOR>
0

> <PUBCHEM_CACTVS_ROTATABLE_BOND>
2

> <PUBCHEM_CACTVS_SUBSKEYS>
AAADceB7AABAAgAAAAAAAAAAAAAAAWAAAAA8YIAAAAAAAFix9AAAHAQAAAAADAjBXgQywfMMEAigAyRiRACCgCBhCjAI2Dw4ZJgIIOLgkZGEIAhggADIyAcQgMAOAAACAAACAQAAAAQAAAQCAAAAAAAAAA==

> <PUBCHEM_IUPAC_OPENEYE_NAME>
1-ethyl-8-methyl-2-[(Z)-(3-methyl-1,3-benzothiazol-2-ylidene)methyl]quinolin-1-ium iodide

> <PUBCHEM_IUPAC_CAS_NAME>
1-ethyl-8-methyl-2-[(Z)-(3-methyl-1,3-benzothiazol-2-ylidene)methyl]quinolin-1-ium iodide

> <PUBCHEM_IUPAC_NAME>
1-ethyl-8-methyl-2-[(Z)-(3-methyl-1,3-benzothiazol-2-ylidene)methyl]quinolin-1-ium iodide

> <PUBCHEM_IUPAC_SYSTEMATIC_NAME>
1-ethyl-8-methyl-2-[(Z)-(3-methyl-1,3-benzothiazol-2-ylidene)methyl]quinolin-1-ium iodide

> <PUBCHEM_IUPAC_TRADITIONAL_NAME>
1-ethyl-8-methyl-2-[(Z)-(3-methyl-1,3-benzothiazol-2-ylidene)methyl]quinolin-1-ium iodide

> <PUBCHEM_NIST_INCHI>
InChI=1/C21H21N2S.HI/c1-4-23-17(13-12-16-9-7-8-15(2)21(16)23)14-20-22(3)18-10-5-6-11-19(18)24-20;/h5-14H,4H2,1-3H3;1H/q+1;/p-1/fC21H21N2S.I/h;1h/qm;-1

> <PUBCHEM_EXACT_MASS>
460.047012

> <PUBCHEM_MOLECULAR_FORMULA>
C21H21IN2S

> <PUBCHEM_MOLECULAR_WEIGHT>
460.37431

> <PUBCHEM_OPENEYE_CAN_SMILES>
CC[N+]1=C(C=CC2=C1C(=CC=C2)C)C=C3N(C4=CC=CC=C4S3)C.[I-]

> <PUBCHEM_OPENEYE_ISO_SMILES>
CC[N+]1=C(C=CC2=C1C(=CC=C2)C)\C=C/3\N(C4=CC=CC=C4S3)C.[I-]

> <PUBCHEM_CACTVS_TPSA>
7.1

> <PUBCHEM_MONOISOTOPIC_WEIGHT>
460.047012

> <PUBCHEM_TOTAL_CHARGE>
0

> <PUBCHEM_HEAVY_ATOM_COUNT>
25

> <PUBCHEM_ATOM_DEF_STEREO_COUNT>
0

> <PUBCHEM_ATOM_UDEF_STEREO_COUNT>
0

> <PUBCHEM_BOND_DEF_STEREO_COUNT>
1

> <PUBCHEM_BOND_UDEF_STEREO_COUNT>
0

> <PUBCHEM_ISOTOPIC_ATOM_COUNT>
0

> <PUBCHEM_COMPONENT_COUNT>
2

> <PUBCHEM_CACTVS_TAUTO_COUNT>
1

> <PUBCHEM_BONDANNOTATIONS>
12  13  8
14  16  8
14  22  8
15  20  8
16  23  8
17  20  8
22  24  8
23  25  8
24  25  8
3  5  8
3  6  8
5  7  8
5  9  8
6  12  8
7  13  8
7  15  8
9  17  8

$$$$
16188269
  -OEChem-11060808482D

 52 54  0     0  0  0  0  0  0999 V2000
    4.5536    8.1864    0.0000 I   0  5  0  0  0  0  0  0  0  0  0  0
    3.7075    4.5615    0.0000 S   0  0  0  0  0  0  0  0  0  0  0  0
    2.9028    3.1677    0.0000 N   0  0  0  0  0  0  0  0  0  0  0  0
    6.4087    3.0728    0.0000 N   0  3  0  0  0  0  0  0  0  0  0  0
    2.6966    2.1892    0.0000 C   0  0  0  0  0  0  0  0  0  0  0  0
    3.8106    3.5728    0.0000 C   0  0  0  0  0  0  0  0  0  0  0  0
    2.2357    3.9047    0.0000 C   0  0  0  0  0  0  0  0  0  0  0  0
    1.7461    1.8785    0.0000 C   0  0  0  0  0  0  0  0  0  0  0  0
    5.5426    3.5728    0.0000 C   0  0  0  0  0  0  0  0  0  0  0  0
    2.7357    4.7707    0.0000 C   0  0  0  0  0  0  0  0  0  0  0  0
    4.6766    3.0728    0.0000 C   0  0  0  0  0  0  0  0  0  0  0  0
    7.2747    3.5728    0.0000 C   0  0  0  0  0  0  0  0  0  0  0  0
    1.5398    0.9000    0.0000 C   0  0  0  0  0  0  0  0  0  0  0  0
    6.4087    2.0728    0.0000 C   0  0  0  0  0  0  0  0  0  0  0  0
    7.2747    4.5728    0.0000 C   0  0  0  0  0  0  0  0  0  0  0  0
    5.5426    4.5728    0.0000 C   0  0  0  0  0  0  0  0  0  0  0  0
    1.2357    3.9047    0.0000 C   0  0  0  0  0  0  0  0  0  0  0  0
    6.4087    5.0728    0.0000 C   0  0  0  0  0  0  0  0  0  0  0  0
    2.2357    5.6367    0.0000 C   0  0  0  0  0  0  0  0  0  0  0  0
    8.1686    3.0381    0.0000 C   0  0  0  0  0  0  0  0  0  0  0  0
    0.5893    0.5893    0.0000 C   0  0  0  0  0  0  0  0  0  0  0  0
    0.7357    4.7707    0.0000 C   0  0  0  0  0  0  0  0  0  0  0  0
    8.1686    5.1074    0.0000 C   0  0  0  0  0  0  0  0  0  0  0  0
    7.2747    1.5728    0.0000 C   0  0  0  0  0  0  0  0  0  0  0  0
    1.2357    5.6367    0.0000 C   0  0  0  0  0  0  0  0  0  0  0  0
    9.0747    3.5520    0.0000 C   0  0  0  0  0  0  0  0  0  0  0  0
    9.0747    4.5936    0.0000 C   0  0  0  0  0  0  0  0  0  0  0  0
    3.3162    2.1686    0.0000 H   0  0  0  0  0  0  0  0  0  0  0  0
    2.7839    1.5753    0.0000 H   0  0  0  0  0  0  0  0  0  0  0  0
    1.1264    1.8991    0.0000 H   0  0  0  0  0  0  0  0  0  0  0  0
    1.6587    2.4923    0.0000 H   0  0  0  0  0  0  0  0  0  0  0  0
    4.6766    2.4528    0.0000 H   0  0  0  0  0  0  0  0  0  0  0  0
    2.1595    0.8794    0.0000 H   0  0  0  0  0  0  0  0  0  0  0  0
    1.6272    0.2862    0.0000 H   0  0  0  0  0  0  0  0  0  0  0  0
    6.1966    1.4902    0.0000 H   0  0  0  0  0  0  0  0  0  0  0  0
    5.7981    2.1804    0.0000 H   0  0  0  0  0  0  0  0  0  0  0  0
    5.0057    4.8828    0.0000 H   0  0  0  0  0  0  0  0  0  0  0  0
    0.9257    3.3677    0.0000 H   0  0  0  0  0  0  0  0  0  0  0  0
    6.4087    5.6928    0.0000 H   0  0  0  0  0  0  0  0  0  0  0  0
    2.5457    6.1737    0.0000 H   0  0  0  0  0  0  0  0  0  0  0  0
    8.1615    2.4182    0.0000 H   0  0  0  0  0  0  0  0  0  0  0  0
    0.3967    1.1786    0.0000 H   0  0  0  0  0  0  0  0  0  0  0  0
    0.0000    0.3967    0.0000 H   0  0  0  0  0  0  0  0  0  0  0  0
    0.7819    0.0000    0.0000 H   0  0  0  0  0  0  0  0  0  0  0  0
    0.1157    4.7707    0.0000 H   0  0  0  0  0  0  0  0  0  0  0  0
    8.1615    5.7274    0.0000 H   0  0  0  0  0  0  0  0  0  0  0  0
    7.5847    2.1097    0.0000 H   0  0  0  0  0  0  0  0  0  0  0  0
    7.8116    1.2628    0.0000 H   0  0  0  0  0  0  0  0  0  0  0  0
    6.9647    1.0358    0.0000 H   0  0  0  0  0  0  0  0  0  0  0  0
    0.9257    6.1737    0.0000 H   0  0  0  0  0  0  0  0  0  0  0  0
    9.6104    3.2399    0.0000 H   0  0  0  0  0  0  0  0  0  0  0  0
    9.6104    4.9057    0.0000 H   0  0  0  0  0  0  0  0  0  0  0  0
  2  6  1  0  0  0  0
  2 10  1  0  0  0  0
  3  5  1  0  0  0  0
  3  6  1  0  0  0  0
  3  7  1  0  0  0  0
  4  9  2  0  0  0  0
  4 12  1  0  0  0  0
  4 14  1  0  0  0  0
  5  8  1  0  0  0  0
  5 28  1  0  0  0  0
  5 29  1  0  0  0  0
  6 11  2  0  0  0  0
  7 10  1  0  0  0  0
  7 17  2  0  0  0  0
  8 13  1  0  0  0  0
  8 30  1  0  0  0  0
  8 31  1  0  0  0  0
  9 11  1  0  0  0  0
  9 16  1  0  0  0  0
 10 19  2  0  0  0  0
 11 32  1  0  0  0  0
 12 15  1  0  0  0  0
 12 20  2  0  0  0  0
 13 21  1  0  0  0  0
 13 33  1  0  0  0  0
 13 34  1  0  0  0  0
 14 24  1  0  0  0  0
 14 35  1  0  0  0  0
 14 36  1  0  0  0  0
 15 18  1  0  0  0  0
 15 23  2  0  0  0  0
 16 18  2  0  0  0  0
 16 37  1  0  0  0  0
 17 22  1  0  0  0  0
 17 38  1  0  0  0  0
 18 39  1  0  0  0  0
 19 25  1  0  0  0  0
 19 40  1  0  0  0  0
 20 26  1  0  0  0  0
 20 41  1  0  0  0  0
 21 42  1  0  0  0  0
 21 43  1  0  0  0  0
 21 44  1  0  0  0  0
 22 25  2  0  0  0  0
 22 45  1  0  0  0  0
 23 27  1  0  0  0  0
 23 46  1  0  0  0  0
 24 47  1  0  0  0  0
 24 48  1  0  0  0  0
 24 49  1  0  0  0  0
 25 50  1  0  0  0  0
 26 27  2  0  0  0  0
 26 51  1  0  0  0  0
 27 52  1  0  0  0  0
M  CHG  2   1  -1   4   1
M  END
> <PUBCHEM_COMPOUND_CID>
16188269

> <PUBCHEM_COMPOUND_CANONICALIZED>
1

> <PUBCHEM_CACTVS_COMPLEXITY>
491

> <PUBCHEM_CACTVS_HBOND_ACCEPTOR>
2

> <PUBCHEM_CACTVS_HBOND_DONOR>
0

> <PUBCHEM_CACTVS_ROTATABLE_BOND>
5

> <PUBCHEM_CACTVS_SUBSKEYS>
AAADceB7AABAAgAAAAAAAAAAAAAAAWAAAAA8YIAAAAAAAFix9AAAHAQAAAAADAjBXgQywfMMEAigAyRiRACCgCBhCjAI2Dw4ZJgIIOLgkZGEIAhggADIyAcQgIAOAAAAAAACAQAAAAAAAAQCAAAAAAAAAA==

> <PUBCHEM_IUPAC_OPENEYE_NAME>
2-[(Z)-(3-butyl-1,3-benzothiazol-2-ylidene)methyl]-1-ethyl-quinolin-1-ium iodide

> <PUBCHEM_IUPAC_CAS_NAME>
2-[(Z)-(3-butyl-1,3-benzothiazol-2-ylidene)methyl]-1-ethylquinolin-1-ium iodide

> <PUBCHEM_IUPAC_NAME>
2-[(Z)-(3-butyl-1,3-benzothiazol-2-ylidene)methyl]-1-ethylquinolin-1-ium iodide

> <PUBCHEM_IUPAC_SYSTEMATIC_NAME>
2-[(Z)-(3-butyl-1,3-benzothiazol-2-ylidene)methyl]-1-ethyl-quinolin-1-ium iodide

> <PUBCHEM_IUPAC_TRADITIONAL_NAME>
2-[(Z)-(3-butyl-1,3-benzothiazol-2-ylidene)methyl]-1-ethyl-quinolin-1-ium iodide

> <PUBCHEM_NIST_INCHI>
InChI=1/C23H25N2S.HI/c1-3-5-16-25-21-12-8-9-13-22(21)26-23(25)17-19-15-14-18-10-6-7-11-20(18)24(19)4-2;/h6-15,17H,3-5,16H2,1-2H3;1H/q+1;/p-1/fC23H25N2S.I/h;1h/qm;-1

> <PUBCHEM_EXACT_MASS>
488.078313

> <PUBCHEM_MOLECULAR_FORMULA>
C23H25IN2S

> <PUBCHEM_MOLECULAR_WEIGHT>
488.42747

> <PUBCHEM_OPENEYE_CAN_SMILES>
CCCCN1C2=CC=CC=C2SC1=CC3=[N+](C4=CC=CC=C4C=C3)CC.[I-]

> <PUBCHEM_OPENEYE_ISO_SMILES>
CCCCN\1C2=CC=CC=C2S/C1=C\C3=[N+](C4=CC=CC=C4C=C3)CC.[I-]

> <PUBCHEM_CACTVS_TPSA>
7.1

> <PUBCHEM_MONOISOTOPIC_WEIGHT>
488.078313

> <PUBCHEM_TOTAL_CHARGE>
0

> <PUBCHEM_HEAVY_ATOM_COUNT>
27

> <PUBCHEM_ATOM_DEF_STEREO_COUNT>
0

> <PUBCHEM_ATOM_UDEF_STEREO_COUNT>
0

> <PUBCHEM_BOND_DEF_STEREO_COUNT>
1

> <PUBCHEM_BOND_UDEF_STEREO_COUNT>
0

> <PUBCHEM_ISOTOPIC_ATOM_COUNT>
0

> <PUBCHEM_COMPONENT_COUNT>
2

> <PUBCHEM_CACTVS_TAUTO_COUNT>
1

> <PUBCHEM_BONDANNOTATIONS>
10  19  8
12  15  8
12  20  8
15  18  8
15  23  8
16  18  8
17  22  8
19  25  8
20  26  8
22  25  8
23  27  8
26  27  8
4  12  8
4  9  8
7  10  8
7  17  8
9  16  8

